TITLE = "Cavity Field Data"
variables="x(m)""y(m)""p(N/m^2)""u(m/s)""v(m/s)""p-exact""u-exact""v-exact""DE-p""DE-u""DE-v"
zone T="n=0"
I= 65 J= 65
DATAPACKING=POINT
0.000000e+00 0.000000e+00 8.013338e-01 5.000000e-01 7.166667e-01 7.500000e-01 5.000000e-01 7.166667e-01 5.133384e-02 0.000000e+00 0.000000e+00
7.812500e-04 0.000000e+00 8.013338e-01 5.024543e-01 7.166326e-01 7.498494e-01 5.024543e-01 7.166326e-01 5.148444e-02 0.000000e+00 0.000000e+00
1.562500e-03 0.000000e+00 8.013338e-01 5.049079e-01 7.165305e-01 7.493977e-01 5.049079e-01 7.165305e-01 5.193612e-02 0.000000e+00 0.000000e+00
2.343750e-03 0.000000e+00 8.013338e-01 5.073602e-01 7.163604e-01 7.486452e-01 5.073602e-01 7.163604e-01 5.268862e-02 0.000000e+00 0.000000e+00
3.125000e-03 0.000000e+00 8.013338e-01 5.098105e-01 7.161222e-01 7.475924e-01 5.098105e-01 7.161222e-01 5.374148e-02 0.000000e+00 0.000000e+00
3.906250e-03 0.000000e+00 8.013338e-01 5.122582e-01 7.158163e-01 7.462398e-01 5.122582e-01 7.158163e-01 5.509408e-02 0.000000e+00 0.000000e+00
4.687500e-03 0.000000e+00 8.013338e-01 5.147026e-01 7.154425e-01 7.445883e-01 5.147026e-01 7.154425e-01 5.674559e-02 0.000000e+00 0.000000e+00
5.468750e-03 0.000000e+00 8.013338e-01 5.171430e-01 7.150012e-01 7.426388e-01 5.171430e-01 7.150012e-01 5.869502e-02 0.000000e+00 0.000000e+00
6.250000e-03 0.000000e+00 8.013338e-01 5.195789e-01 7.144925e-01 7.403926e-01 5.195789e-01 7.144925e-01 6.094120e-02 0.000000e+00 0.000000e+00
7.031250e-03 0.000000e+00 8.013338e-01 5.220096e-01 7.139166e-01 7.378511e-01 5.220096e-01 7.139166e-01 6.348278e-02 0.000000e+00 0.000000e+00
7.812500e-03 0.000000e+00 8.013338e-01 5.244343e-01 7.132737e-01 7.350156e-01 5.244343e-01 7.132737e-01 6.631822e-02 0.000000e+00 0.000000e+00
8.593750e-03 0.000000e+00 8.013338e-01 5.268525e-01 7.125641e-01 7.318880e-01 5.268525e-01 7.125641e-01 6.944581e-02 0.000000e+00 0.000000e+00
9.375000e-03 0.000000e+00 8.013338e-01 5.292635e-01 7.117881e-01 7.284702e-01 5.292635e-01 7.117881e-01 7.286368e-02 0.000000e+00 0.000000e+00
1.015625e-02 0.000000e+00 8.013338e-01 5.316667e-01 7.109460e-01 7.247641e-01 5.316667e-01 7.109460e-01 7.656975e-02 0.000000e+00 0.000000e+00
1.093750e-02 0.000000e+00 8.013338e-01 5.340614e-01 7.100382e-01 7.207720e-01 5.340614e-01 7.100382e-01 8.056181e-02 0.000000e+00 0.000000e+00
1.171875e-02 0.000000e+00 8.013338e-01 5.364470e-01 7.090650e-01 7.164964e-01 5.364470e-01 7.090650e-01 8.483745e-02 0.000000e+00 0.000000e+00
1.250000e-02 0.000000e+00 8.013338e-01 5.388229e-01 7.080268e-01 7.119398e-01 5.388229e-01 7.080268e-01 8.939408e-02 0.000000e+00 0.000000e+00
1.328125e-02 0.000000e+00 8.013338e-01 5.411883e-01 7.069240e-01 7.071049e-01 5.411883e-01 7.069240e-01 9.422897e-02 0.000000e+00 0.000000e+00
1.406250e-02 0.000000e+00 8.013338e-01 5.435427e-01 7.057571e-01 7.019946e-01 5.435427e-01 7.057571e-01 9.933920e-02 0.000000e+00 0.000000e+00
1.484375e-02 0.000000e+00 8.013338e-01 5.458855e-01 7.045266e-01 6.966122e-01 5.458855e-01 7.045266e-01 1.047217e-01 0.000000e+00 0.000000e+00
1.562500e-02 0.000000e+00 8.013338e-01 5.482159e-01 7.032330e-01 6.909606e-01 5.482159e-01 7.032330e-01 1.103732e-01 0.000000e+00 0.000000e+00
1.640625e-02 0.000000e+00 8.013338e-01 5.505335e-01 7.018768e-01 6.850435e-01 5.505335e-01 7.018768e-01 1.162903e-01 0.000000e+00 0.000000e+00
1.718750e-02 0.000000e+00 8.013338e-01 5.528375e-01 7.004585e-01 6.788643e-01 5.528375e-01 7.004585e-01 1.224695e-01 0.000000e+00 0.000000e+00
1.796875e-02 0.000000e+00 8.013338e-01 5.551274e-01 6.989787e-01 6.724268e-01 5.551274e-01 6.989787e-01 1.289071e-01 0.000000e+00 0.000000e+00
1.875000e-02 0.000000e+00 8.013338e-01 5.574025e-01 6.974381e-01 6.657348e-01 5.574025e-01 6.974381e-01 1.355990e-01 0.000000e+00 0.000000e+00
1.953125e-02 0.000000e+00 8.013338e-01 5.596623e-01 6.958373e-01 6.587924e-01 5.596623e-01 6.958373e-01 1.425414e-01 0.000000e+00 0.000000e+00
2.031250e-02 0.000000e+00 8.013338e-01 5.619061e-01 6.941769e-01 6.516038e-01 5.619061e-01 6.941769e-01 1.497301e-01 0.000000e+00 0.000000e+00
2.109375e-02 0.000000e+00 8.013338e-01 5.641333e-01 6.924576e-01 6.441732e-01 5.641333e-01 6.924576e-01 1.571606e-01 0.000000e+00 0.000000e+00
2.187500e-02 0.000000e+00 8.013338e-01 5.663433e-01 6.906800e-01 6.365052e-01 5.663433e-01 6.906800e-01 1.648286e-01 0.000000e+00 0.000000e+00
2.265625e-02 0.000000e+00 8.013338e-01 5.685356e-01 6.888451e-01 6.286044e-01 5.685356e-01 6.888451e-01 1.727294e-01 0.000000e+00 0.000000e+00
2.343750e-02 0.000000e+00 8.013338e-01 5.707095e-01 6.869533e-01 6.204756e-01 5.707095e-01 6.869533e-01 1.808583e-01 0.000000e+00 0.000000e+00
2.421875e-02 0.000000e+00 8.013338e-01 5.728645e-01 6.850057e-01 6.121235e-01 5.728645e-01 6.850057e-01 1.892103e-01 0.000000e+00 0.000000e+00
2.500000e-02 0.000000e+00 8.013338e-01 5.750000e-01 6.830029e-01 6.035534e-01 5.750000e-01 6.830029e-01 1.977805e-01 0.000000e+00 0.000000e+00
2.578125e-02 0.000000e+00 8.013338e-01 5.771154e-01 6.809457e-01 5.947703e-01 5.771154e-01 6.809457e-01 2.065636e-01 0.000000e+00 0.000000e+00
2.656250e-02 0.000000e+00 8.013338e-01 5.792102e-01 6.788351e-01 5.857795e-01 5.792102e-01 6.788351e-01 2.155544e-01 0.000000e+00 0.000000e+00
2.734375e-02 0.000000e+00 8.013338e-01 5.812837e-01 6.766718e-01 5.765864e-01 5.812837e-01 6.766718e-01 2.247474e-01 0.000000e+00 0.000000e+00
2.812500e-02 0.000000e+00 8.013338e-01 5.833355e-01 6.744568e-01 5.671966e-01 5.833355e-01 6.744568e-01 2.341372e-01 0.000000e+00 0.000000e+00
2.890625e-02 0.000000e+00 8.013338e-01 5.853650e-01 6.721909e-01 5.576158e-01 5.853650e-01 6.721909e-01 2.437180e-01 0.000000e+00 0.000000e+00
2.968750e-02 0.000000e+00 8.013338e-01 5.873717e-01 6.698751e-01 5.478497e-01 5.873717e-01 6.698751e-01 2.534842e-01 0.000000e+00 0.000000e+00
3.046875e-02 0.000000e+00 8.013338e-01 5.893549e-01 6.675103e-01 5.379041e-01 5.893549e-01 6.675103e-01 2.634297e-01 0.000000e+00 0.000000e+00
3.125000e-02 0.000000e+00 8.013338e-01 5.913142e-01 6.650976e-01 5.277851e-01 5.913142e-01 6.650976e-01 2.735487e-01 0.000000e+00 0.000000e+00
3.203125e-02 0.000000e+00 8.013338e-01 5.932491e-01 6.626378e-01 5.174988e-01 5.932491e-01 6.626378e-01 2.838350e-01 0.000000e+00 0.000000e+00
3.281250e-02 0.000000e+00 8.013338e-01 5.951590e-01 6.601320e-01 5.070514e-01 5.951590e-01 6.601320e-01 2.942825e-01 0.000000e+00 0.000000e+00
3.359375e-02 0.000000e+00 8.013338e-01 5.970434e-01 6.575812e-01 4.964491e-01 5.970434e-01 6.575812e-01 3.048847e-01 0.000000e+00 0.000000e+00
3.437500e-02 0.000000e+00 8.013338e-01 5.989019e-01 6.549864e-01 4.856984e-01 5.989019e-01 6.549864e-01 3.156355e-01 0.000000e+00 0.000000e+00
3.515625e-02 0.000000e+00 8.013338e-01 6.007338e-01 6.523488e-01 4.748057e-01 6.007338e-01 6.523488e-01 3.265282e-01 0.000000e+00 0.000000e+00
3.593750e-02 0.000000e+00 8.013338e-01 6.025388e-01 6.496693e-01 4.637775e-01 6.025388e-01 6.496693e-01 3.375563e-01 0.000000e+00 0.000000e+00
3.671875e-02 0.000000e+00 8.013338e-01 6.043164e-01 6.469492e-01 4.526207e-01 6.043164e-01 6.469492e-01 3.487132e-01 0.000000e+00 0.000000e+00
3.750000e-02 0.000000e+00 8.013338e-01 6.060660e-01 6.441894e-01 4.413417e-01 6.060660e-01 6.441894e-01 3.599921e-01 0.000000e+00 0.000000e+00
3.828125e-02 0.000000e+00 8.013338e-01 6.077872e-01 6.413911e-01 4.299475e-01 6.077872e-01 6.413911e-01 3.713863e-01 0.000000e+00 0.000000e+00
3.906250e-02 0.000000e+00 8.013338e-01 6.094796e-01 6.385556e-01 4.184449e-01 6.094796e-01 6.385556e-01 3.828889e-01 0.000000e+00 0.000000e+00
3.984375e-02 0.000000e+00 8.013338e-01 6.111427e-01 6.356838e-01 4.068409e-01 6.111427e-01 6.356838e-01 3.944930e-01 0.000000e+00 0.000000e+00
4.062500e-02 0.000000e+00 8.013338e-01 6.127760e-01 6.327770e-01 3.951423e-01 6.127760e-01 6.327770e-01 4.061915e-01 0.000000e+00 0.000000e+00
4.140625e-02 0.000000e+00 8.013338e-01 6.143791e-01 6.298364e-01 3.833564e-01 6.143791e-01 6.298364e-01 4.179775e-01 0.000000e+00 0.000000e+00
4.218750e-02 0.000000e+00 8.013338e-01 6.159516e-01 6.268632e-01 3.714901e-01 6.159516e-01 6.268632e-01 4.298438e-01 0.000000e+00 0.000000e+00
4.296875e-02 0.000000e+00 8.013338e-01 6.174930e-01 6.238586e-01 3.595506e-01 6.174930e-01 6.238586e-01 4.417832e-01 0.000000e+00 0.000000e+00
4.375000e-02 0.000000e+00 8.013338e-01 6.190030e-01 6.208238e-01 3.475452e-01 6.190030e-01 6.208238e-01 4.537887e-01 0.000000e+00 0.000000e+00
4.453125e-02 0.000000e+00 8.013338e-01 6.204811e-01 6.177601e-01 3.354809e-01 6.204811e-01 6.177601e-01 4.658529e-01 0.000000e+00 0.000000e+00
4.531250e-02 0.000000e+00 8.013338e-01 6.219270e-01 6.146687e-01 3.233652e-01 6.219270e-01 6.146687e-01 4.779686e-01 0.000000e+00 0.000000e+00
4.609375e-02 0.000000e+00 8.013338e-01 6.233402e-01 6.115509e-01 3.112053e-01 6.233402e-01 6.115509e-01 4.901285e-01 0.000000e+00 0.000000e+00
4.687500e-02 0.000000e+00 8.013338e-01 6.247204e-01 6.084080e-01 2.990086e-01 6.247204e-01 6.084080e-01 5.023253e-01 0.000000e+00 0.000000e+00
4.765625e-02 0.000000e+00 8.013338e-01 6.260673e-01 6.052411e-01 2.867823e-01 6.260673e-01 6.052411e-01 5.145516e-01 0.000000e+00 0.000000e+00
4.843750e-02 0.000000e+00 8.013338e-01 6.273803e-01 6.020518e-01 2.745338e-01 6.273803e-01 6.020518e-01 5.268000e-01 0.000000e+00 0.000000e+00
4.921875e-02 0.000000e+00 8.013338e-01 6.286593e-01 5.988411e-01 2.622706e-01 6.286593e-01 5.988411e-01 5.390632e-01 0.000000e+00 0.000000e+00
5.000000e-02 0.000000e+00 8.013338e-01 6.299038e-01 5.956105e-01 2.500000e-01 6.299038e-01 5.956105e-01 5.513338e-01 0.000000e+00 0.000000e+00
0.000000e+00 7.812500e-04 8.013338e-01 4.999849e-01 7.166583e-01 7.539269e-01 4.999849e-01 7.166583e-01 4.740692e-02 0.000000e+00 0.000000e+00
7.812500e-04 7.812500e-04 8.013338e-01 0.000000e+00 0.000000e+00 7.538494e-01 5.025159e-01 7.166243e-01 4.748446e-02 -5.025159e-01 -7.166243e-01
1.562500e-03 7.812500e-04 8.013338e-01 0.000000e+00 0.000000e+00 7.534707e-01 5.050462e-01 7.165221e-01 4.786310e-02 -5.050462e-01 -7.165221e-01
2.343750e-03 7.812500e-04 8.013338e-01 0.000000e+00 0.000000e+00 7.527913e-01 5.075752e-01 7.163520e-01 4.854255e-02 -5.075752e-01 -7.163520e-01
3.125000e-03 7.812500e-04 8.013338e-01 0.000000e+00 0.000000e+00 7.518115e-01 5.101022e-01 7.161138e-01 4.952237e-02 -5.101022e-01 -7.161138e-01
3.906250e-03 7.812500e-04 8.013338e-01 0.000000e+00 0.000000e+00 7.505319e-01 5.126266e-01 7.158078e-01 5.080192e-02 -5.126266e-01 -7.158078e-01
4.687500e-03 7.812500e-04 8.013338e-01 0.000000e+00 0.000000e+00 7.489535e-01 5.151477e-01 7.154341e-01 5.238038e-02 -5.151477e-01 -7.154341e-01
5.468750e-03 7.812500e-04 8.013338e-01 0.000000e+00 0.000000e+00 7.470771e-01 5.176649e-01 7.149927e-01 5.425677e-02 -5.176649e-01 -7.149927e-01
6.250000e-03 7.812500e-04 8.013338e-01 0.000000e+00 0.000000e+00 7.449039e-01 5.201775e-01 7.144839e-01 5.642990e-02 -5.201775e-01 -7.144839e-01
7.031250e-03 7.812500e-04 8.013338e-01 0.000000e+00 0.000000e+00 7.424354e-01 5.226848e-01 7.139080e-01 5.889843e-02 -5.226848e-01 -7.139080e-01
7.812500e-03 7.812500e-04 8.013338e-01 0.000000e+00 0.000000e+00 7.396730e-01 5.251863e-01 7.132650e-01 6.166082e-02 -5.251863e-01 -7.132650e-01
8.593750e-03 7.812500e-04 8.013338e-01 0.000000e+00 0.000000e+00 7.366185e-01 5.276812e-01 7.125554e-01 6.471537e-02 -5.276812e-01 -7.125554e-01
9.375000e-03 7.812500e-04 8.013338e-01 0.000000e+00 0.000000e+00 7.332737e-01 5.301689e-01 7.117793e-01 6.806019e-02 -5.301689e-01 -7.117793e-01
1.015625e-02 7.812500e-04 8.013338e-01 0.000000e+00 0.000000e+00 7.296406e-01 5.326488e-01 7.109371e-01 7.169322e-02 -5.326488e-01 -7.109371e-01
1.093750e-02 7.812500e-04 8.013338e-01 0.000000e+00 0.000000e+00 7.257216e-01 5.351202e-01 7.100292e-01 7.561223e-02 -5.351202e-01 -7.100292e-01
1.171875e-02 7.812500e-04 8.013338e-01 0.000000e+00 0.000000e+00 7.215190e-01 5.375824e-01 7.090559e-01 7.981482e-02 -5.375824e-01 -7.090559e-01
1.250000e-02 7.812500e-04 8.013338e-01 0.000000e+00 0.000000e+00 7.170354e-01 5.400350e-01 7.080176e-01 8.429841e-02 -5.400350e-01 -7.080176e-01
1.328125e-02 7.812500e-04 8.013338e-01 0.000000e+00 0.000000e+00 7.122736e-01 5.424771e-01 7.069147e-01 8.906025e-02 -5.424771e-01 -7.069147e-01
1.406250e-02 7.812500e-04 8.013338e-01 0.000000e+00 0.000000e+00 7.072364e-01 5.449082e-01 7.057477e-01 9.409743e-02 -5.449082e-01 -7.057477e-01
1.484375e-02 7.812500e-04 8.013338e-01 0.000000e+00 0.000000e+00 7.019270e-01 5.473277e-01 7.045171e-01 9.940688e-02 -5.473277e-01 -7.045171e-01
1.562500e-02 7.812500e-04 8.013338e-01 0.000000e+00 0.000000e+00 6.963485e-01 5.497348e-01 7.032233e-01 1.049854e-01 -5.497348e-01 -7.032233e-01
1.640625e-02 7.812500e-04 8.013338e-01 0.000000e+00 0.000000e+00 6.905044e-01 5.521291e-01 7.018670e-01 1.108294e-01 -5.521291e-01 -7.018670e-01
1.718750e-02 7.812500e-04 8.013338e-01 0.000000e+00 0.000000e+00 6.843983e-01 5.545098e-01 7.004485e-01 1.169356e-01 -5.545098e-01 -7.004485e-01
1.796875e-02 7.812500e-04 8.013338e-01 0.000000e+00 0.000000e+00 6.780338e-01 5.568764e-01 6.989687e-01 1.233001e-01 -5.568764e-01 -6.989687e-01
1.875000e-02 7.812500e-04 8.013338e-01 0.000000e+00 0.000000e+00 6.714148e-01 5.592282e-01 6.974279e-01 1.299190e-01 -5.592282e-01 -6.974279e-01
1.953125e-02 7.812500e-04 8.013338e-01 0.000000e+00 0.000000e+00 6.645455e-01 5.615647e-01 6.958269e-01 1.367884e-01 -5.615647e-01 -6.958269e-01
2.031250e-02 7.812500e-04 8.013338e-01 0.000000e+00 0.000000e+00 6.574299e-01 5.638851e-01 6.941663e-01 1.439039e-01 -5.638851e-01 -6.941663e-01
2.109375e-02 7.812500e-04 8.013338e-01 0.000000e+00 0.000000e+00 6.500724e-01 5.661891e-01 6.924468e-01 1.512615e-01 -5.661891e-01 -6.924468e-01
2.187500e-02 7.812500e-04 8.013338e-01 0.000000e+00 0.000000e+00 6.424774e-01 5.684758e-01 6.906691e-01 1.588564e-01 -5.684758e-01 -6.906691e-01
2.265625e-02 7.812500e-04 8.013338e-01 0.000000e+00 0.000000e+00 6.346497e-01 5.707448e-01 6.888339e-01 1.666842e-01 -5.707448e-01 -6.888339e-01
2.343750e-02 7.812500e-04 8.013338e-01 0.000000e+00 0.000000e+00 6.265939e-01 5.729954e-01 6.869420e-01 1.747400e-01 -5.729954e-01 -6.869420e-01
2.421875e-02 7.812500e-04 8.013338e-01 0.000000e+00 0.000000e+00 6.183149e-01 5.752271e-01 6.849942e-01 1.830189e-01 -5.752271e-01 -6.849942e-01
2.500000e-02 7.812500e-04 8.013338e-01 0.000000e+00 0.000000e+00 6.098178e-01 5.774393e-01 6.829912e-01 1.915161e-01 -5.774393e-01 -6.829912e-01
2.578125e-02 7.812500e-04 8.013338e-01 0.000000e+00 0.000000e+00 6.011077e-01 5.796314e-01 6.809338e-01 2.002261e-01 -5.796314e-01 -6.809338e-01
2.656250e-02 7.812500e-04 8.013338e-01 0.000000e+00 0.000000e+00 5.921900e-01 5.818028e-01 6.788229e-01 2.091439e-01 -5.818028e-01 -6.788229e-01
2.734375e-02 7.812500e-04 8.013338e-01 0.000000e+00 0.000000e+00 5.830700e-01 5.839531e-01 6.766594e-01 2.182639e-01 -5.839531e-01 -6.766594e-01
2.812500e-02 7.812500e-04 8.013338e-01 0.000000e+00 0.000000e+00 5.737532e-01 5.860816e-01 6.744442e-01 2.275806e-01 -5.860816e-01 -6.744442e-01
2.890625e-02 7.812500e-04 8.013338e-01 0.000000e+00 0.000000e+00 5.642454e-01 5.881878e-01 6.721781e-01 2.370884e-01 -5.881878e-01 -6.721781e-01
2.968750e-02 7.812500e-04 8.013338e-01 0.000000e+00 0.000000e+00 5.545523e-01 5.902711e-01 6.698620e-01 2.467815e-01 -5.902711e-01 -6.698620e-01
3.046875e-02 7.812500e-04 8.013338e-01 0.000000e+00 0.000000e+00 5.446798e-01 5.923310e-01 6.674970e-01 2.566540e-01 -5.923310e-01 -6.674970e-01
3.125000e-02 7.812500e-04 8.013338e-01 0.000000e+00 0.000000e+00 5.346339e-01 5.943670e-01 6.650840e-01 2.667000e-01 -5.943670e-01 -6.650840e-01
3.203125e-02 7.812500e-04 8.013338e-01 0.000000e+00 0.000000e+00 5.244206e-01 5.963786e-01 6.626239e-01 2.769132e-01 -5.963786e-01 -6.626239e-01
3.281250e-02 7.812500e-04 8.013338e-01 0.000000e+00 0.000000e+00 5.140462e-01 5.983652e-01 6.601178e-01 2.872876e-01 -5.983652e-01 -6.601178e-01
3.359375e-02 7.812500e-04 8.013338e-01 0.000000e+00 0.000000e+00 5.035170e-01 6.003263e-01 6.575668e-01 2.978169e-01 -6.003263e-01 -6.575668e-01
3.437500e-02 7.812500e-04 8.013338e-01 0.000000e+00 0.000000e+00 4.928393e-01 6.022615e-01 6.549717e-01 3.084945e-01 -6.022615e-01 -6.549717e-01
3.515625e-02 7.812500e-04 8.013338e-01 0.000000e+00 0.000000e+00 4.820196e-01 6.041701e-01 6.523338e-01 3.193142e-01 -6.041701e-01 -6.523338e-01
3.593750e-02 7.812500e-04 8.013338e-01 0.000000e+00 0.000000e+00 4.710646e-01 6.060518e-01 6.496541e-01 3.302693e-01 -6.060518e-01 -6.496541e-01
3.671875e-02 7.812500e-04 8.013338e-01 0.000000e+00 0.000000e+00 4.599807e-01 6.079061e-01 6.469336e-01 3.413531e-01 -6.079061e-01 -6.469336e-01
3.750000e-02 7.812500e-04 8.013338e-01 0.000000e+00 0.000000e+00 4.487748e-01 6.097324e-01 6.441735e-01 3.525590e-01 -6.097324e-01 -6.441735e-01
3.828125e-02 7.812500e-04 8.013338e-01 0.000000e+00 0.000000e+00 4.374537e-01 6.115303e-01 6.413749e-01 3.638802e-01 -6.115303e-01 -6.413749e-01
3.906250e-02 7.812500e-04 8.013338e-01 0.000000e+00 0.000000e+00 4.260241e-01 6.132994e-01 6.385390e-01 3.753097e-01 -6.132994e-01 -6.385390e-01
3.984375e-02 7.812500e-04 8.013338e-01 0.000000e+00 0.000000e+00 4.144931e-01 6.150391e-01 6.356669e-01 3.868407e-01 -6.150391e-01 -6.356669e-01
4.062500e-02 7.812500e-04 8.013338e-01 0.000000e+00 0.000000e+00 4.028676e-01 6.167491e-01 6.327598e-01 3.984662e-01 -6.167491e-01 -6.327598e-01
4.140625e-02 7.812500e-04 8.013338e-01 0.000000e+00 0.000000e+00 3.911547e-01 6.184289e-01 6.298189e-01 4.101791e-01 -6.184289e-01 -6.298189e-01
4.218750e-02 7.812500e-04 8.013338e-01 0.000000e+00 0.000000e+00 3.793614e-01 6.200781e-01 6.268453e-01 4.219724e-01 -6.200781e-01 -6.268453e-01
4.296875e-02 7.812500e-04 8.013338e-01 0.000000e+00 0.000000e+00 3.674950e-01 6.216962e-01 6.238404e-01 4.338388e-01 -6.216962e-01 -6.238404e-01
4.375000e-02 7.812500e-04 8.013338e-01 0.000000e+00 0.000000e+00 3.555626e-01 6.232829e-01 6.208052e-01 4.457712e-01 -6.232829e-01 -6.208052e-01
4.453125e-02 7.812500e-04 8.013338e-01 0.000000e+00 0.000000e+00 3.435714e-01 6.248377e-01 6.177411e-01 4.577624e-01 -6.248377e-01 -6.177411e-01
4.531250e-02 7.812500e-04 8.013338e-01 0.000000e+00 0.000000e+00 3.315288e-01 6.263603e-01 6.146494e-01 4.698051e-01 -6.263603e-01 -6.146494e-01
4.609375e-02 7.812500e-04 8.013338e-01 0.000000e+00 0.000000e+00 3.194419e-01 6.278502e-01 6.115312e-01 4.818919e-01 -6.278502e-01 -6.115312e-01
4.687500e-02 7.812500e-04 8.013338e-01 0.000000e+00 0.000000e+00 3.073182e-01 6.293071e-01 6.083878e-01 4.940157e-01 -6.293071e-01 -6.083878e-01
4.765625e-02 7.812500e-04 8.013338e-01 0.000000e+00 0.000000e+00 2.951649e-01 6.307306e-01 6.052206e-01 5.061689e-01 -6.307306e-01 -6.052206e-01
4.843750e-02 7.812500e-04 8.013338e-01 0.000000e+00 0.000000e+00 2.829895e-01 6.321203e-01 6.020308e-01 5.183443e-01 -6.321203e-01 -6.020308e-01
4.921875e-02 7.812500e-04 8.013338e-01 0.000000e+00 0.000000e+00 2.707993e-01 6.334760e-01 5.988198e-01 5.305345e-01 -6.334760e-01 -5.988198e-01
5.000000e-02 7.812500e-04 8.013338e-01 6.347972e-01 5.955887e-01 2.586018e-01 6.347972e-01 5.955887e-01 5.427321e-01 0.000000e+00 0.000000e+00
0.000000e+00 1.562500e-03 8.013338e-01 4.999398e-01 7.166332e-01 7.578535e-01 4.999398e-01 7.166332e-01 4.348037e-02 0.000000e+00 0.000000e+00
7.812500e-04 1.562500e-03 8.013338e-01 0.000000e+00 0.000000e+00 7.578490e-01 5.025474e-01 7.165991e-01 4.348486e-02 -5.025474e-01 -7.165991e-01
1.562500e-03 1.562500e-03 8.013338e-01 0.000000e+00 0.000000e+00 7.575434e-01 5.051544e-01 7.164970e-01 4.379045e-02 -5.051544e-01 -7.164970e-01
2.343750e-03 1.562500e-03 8.013338e-01 0.000000e+00 0.000000e+00 7.569370e-01 5.077601e-01 7.163268e-01 4.439686e-02 -5.077601e-01 -7.163268e-01
3.125000e-03 1.562500e-03 8.013338e-01 0.000000e+00 0.000000e+00 7.560302e-01 5.103638e-01 7.160886e-01 4.530363e-02 -5.103638e-01 -7.160886e-01
3.906250e-03 1.562500e-03 8.013338e-01 0.000000e+00 0.000000e+00 7.548237e-01 5.129649e-01 7.157825e-01 4.651013e-02 -5.129649e-01 -7.157825e-01
4.687500e-03 1.562500e-03 8.013338e-01 0.000000e+00 0.000000e+00 7.533183e-01 5.155627e-01 7.154086e-01 4.801555e-02 -5.155627e-01 -7.154086e-01
5.468750e-03 1.562500e-03 8.013338e-01 0.000000e+00 0.000000e+00 7.515150e-01 5.181566e-01 7.149671e-01 4.981889e-02 -5.181566e-01 -7.149671e-01
6.250000e-03 1.562500e-03 8.013338e-01 0.000000e+00 0.000000e+00 7.494149e-01 5.207459e-01 7.144582e-01 5.191898e-02 -5.207459e-01 -7.144582e-01
7.031250e-03 1.562500e-03 8.013338e-01 0.000000e+00 0.000000e+00 7.470194e-01 5.233299e-01 7.138821e-01 5.431447e-02 -5.233299e-01 -7.138821e-01
7.812500e-03 1.562500e-03 8.013338e-01 0.000000e+00 0.000000e+00 7.443300e-01 5.259081e-01 7.132389e-01 5.700381e-02 -5.259081e-01 -7.132389e-01
8.593750e-03 1.562500e-03 8.013338e-01 0.000000e+00 0.000000e+00 7.413485e-01 5.284797e-01 7.125291e-01 5.998531e-02 -5.284797e-01 -7.125291e-01
9.375000e-03 1.562500e-03 8.013338e-01 0.000000e+00 0.000000e+00 7.380768e-01 5.310441e-01 7.117528e-01 6.325709e-02 -5.310441e-01 -7.117528e-01
1.015625e-02 1.562500e-03 8.013338e-01 0.000000e+00 0.000000e+00 7.345168e-01 5.336007e-01 7.109104e-01 6.681707e-02 -5.336007e-01 -7.109104e-01
1.093750e-02 1.562500e-03 8.013338e-01 0.000000e+00 0.000000e+00 7.306708e-01 5.361487e-01 7.100022e-01 7.066304e-02 -5.361487e-01 -7.100022e-01
1.171875e-02 1.562500e-03 8.013338e-01 0.000000e+00 0.000000e+00 7.265413e-01 5.386877e-01 7.090286e-01 7.479258e-02 -5.386877e-01 -7.090286e-01
1.250000e-02 1.562500e-03 8.013338e-01 0.000000e+00 0.000000e+00 7.221307e-01 5.412170e-01 7.079900e-01 7.920313e-02 -5.412170e-01 -7.079900e-01
1.328125e-02 1.562500e-03 8.013338e-01 0.000000e+00 0.000000e+00 7.174419e-01 5.437358e-01 7.068868e-01 8.389192e-02 -5.437358e-01 -7.068868e-01
1.406250e-02 1.562500e-03 8.013338e-01 0.000000e+00 0.000000e+00 7.124778e-01 5.462436e-01 7.057194e-01 8.885607e-02 -5.462436e-01 -7.057194e-01
1.484375e-02 1.562500e-03 8.013338e-01 0.000000e+00 0.000000e+00 7.072414e-01 5.487397e-01 7.044885e-01 9.409247e-02 -5.487397e-01 -7.044885e-01
1.562500e-02 1.562500e-03 8.013338e-01 0.000000e+00 0.000000e+00 7.017359e-01 5.512236e-01 7.031943e-01 9.959790e-02 -5.512236e-01 -7.031943e-01
1.640625e-02 1.562500e-03 8.013338e-01 0.000000e+00 0.000000e+00 6.959649e-01 5.536945e-01 7.018375e-01 1.053690e-01 -5.536945e-01 -7.018375e-01
1.718750e-02 1.562500e-03 8.013338e-01 0.000000e+00 0.000000e+00 6.899318e-01 5.561519e-01 7.004187e-01 1.114021e-01 -5.561519e-01 -7.004187e-01
1.796875e-02 1.562500e-03 8.013338e-01 0.000000e+00 0.000000e+00 6.836404e-01 5.585952e-01 6.989384e-01 1.176935e-01 -5.585952e-01 -6.989384e-01
1.875000e-02 1.562500e-03 8.013338e-01 0.000000e+00 0.000000e+00 6.770945e-01 5.610237e-01 6.973971e-01 1.242394e-01 -5.610237e-01 -6.973971e-01
1.953125e-02 1.562500e-03 8.013338e-01 0.000000e+00 0.000000e+00 6.702981e-01 5.634368e-01 6.957957e-01 1.310357e-01 -5.634368e-01 -6.957957e-01
2.031250e-02 1.562500e-03 8.013338e-01 0.000000e+00 0.000000e+00 6.632556e-01 5.658340e-01 6.941346e-01 1.380783e-01 -5.658340e-01 -6.941346e-01
2.109375e-02 1.562500e-03 8.013338e-01 0.000000e+00 0.000000e+00 6.559711e-01 5.682146e-01 6.924146e-01 1.453627e-01 -5.682146e-01 -6.924146e-01
2.187500e-02 1.562500e-03 8.013338e-01 0.000000e+00 0.000000e+00 6.484492e-01 5.705780e-01 6.906363e-01 1.528846e-01 -5.705780e-01 -6.906363e-01
2.265625e-02 1.562500e-03 8.013338e-01 0.000000e+00 0.000000e+00 6.406945e-01 5.729237e-01 6.888006e-01 1.606393e-01 -5.729237e-01 -6.888006e-01
2.343750e-02 1.562500e-03 8.013338e-01 0.000000e+00 0.000000e+00 6.327117e-01 5.752510e-01 6.869081e-01 1.686221e-01 -5.752510e-01 -6.869081e-01
2.421875e-02 1.562500e-03 8.013338e-01 0.000000e+00 0.000000e+00 6.245058e-01 5.775593e-01 6.849597e-01 1.768281e-01 -5.775593e-01 -6.849597e-01
2.500000e-02 1.562500e-03 8.013338e-01 0.000000e+00 0.000000e+00 6.160817e-01 5.798482e-01 6.829560e-01 1.852521e-01 -5.798482e-01 -6.829560e-01
2.578125e-02 1.562500e-03 8.013338e-01 0.000000e+00 0.000000e+00 6.074447e-01 5.821170e-01 6.808980e-01 1.938892e-01 -5.821170e-01 -6.808980e-01
2.656250e-02 1.562500e-03 8.013338e-01 0.000000e+00 0.000000e+00 5.985999e-01 5.843651e-01 6.787865e-01 2.027339e-01 -5.843651e-01 -6.787865e-01
2.734375e-02 1.562500e-03 8.013338e-01 0.000000e+00 0.000000e+00 5.895530e-01 5.865920e-01 6.766223e-01 2.117809e-01 -5.865920e-01 -6.766223e-01
2.812500e-02 1.562500e-03 8.013338e-01 0.000000e+00 0.000000e+00 5.803093e-01 5.887972e-01 6.744064e-01 2.210246e-01 -5.887972e-01 -6.744064e-01
2.890625e-02 1.562500e-03 8.013338e-01 0.000000e+00 0.000000e+00 5.708745e-01 5.909800e-01 6.721395e-01 2.304594e-01 -5.909800e-01 -6.721395e-01
2.968750e-02 1.562500e-03 8.013338e-01 0.000000e+00 0.000000e+00 5.612544e-01 5.931400e-01 6.698228e-01 2.400794e-01 -5.931400e-01 -6.698228e-01
3.046875e-02 1.562500e-03 8.013338e-01 0.000000e+00 0.000000e+00 5.514549e-01 5.952766e-01 6.674570e-01 2.498789e-01 -5.952766e-01 -6.674570e-01
3.125000e-02 1.562500e-03 8.013338e-01 0.000000e+00 0.000000e+00 5.414820e-01 5.973893e-01 6.650432e-01 2.598518e-01 -5.973893e-01 -6.650432e-01
3.203125e-02 1.562500e-03 8.013338e-01 0.000000e+00 0.000000e+00 5.313418e-01 5.994775e-01 6.625823e-01 2.699921e-01 -5.994775e-01 -6.625823e-01
3.281250e-02 1.562500e-03 8.013338e-01 0.000000e+00 0.000000e+00 5.210404e-01 6.015408e-01 6.600755e-01 2.802934e-01 -6.015408e-01 -6.600755e-01
3.359375e-02 1.562500e-03 8.013338e-01 0.000000e+00 0.000000e+00 5.105842e-01 6.035785e-01 6.575235e-01 2.907496e-01 -6.035785e-01 -6.575235e-01
3.437500e-02 1.562500e-03 8.013338e-01 0.000000e+00 0.000000e+00 4.999796e-01 6.055903e-01 6.549277e-01 3.013543e-01 -6.055903e-01 -6.549277e-01
3.515625e-02 1.562500e-03 8.013338e-01 0.000000e+00 0.000000e+00 4.892329e-01 6.075756e-01 6.522889e-01 3.121009e-01 -6.075756e-01 -6.522889e-01
3.593750e-02 1.562500e-03 8.013338e-01 0.000000e+00 0.000000e+00 4.783509e-01 6.095340e-01 6.496082e-01 3.229830e-01 -6.095340e-01 -6.496082e-01
3.671875e-02 1.562500e-03 8.013338e-01 0.000000e+00 0.000000e+00 4.673400e-01 6.114649e-01 6.468868e-01 3.339938e-01 -6.114649e-01 -6.468868e-01
3.750000e-02 1.562500e-03 8.013338e-01 0.000000e+00 0.000000e+00 4.562072e-01 6.133678e-01 6.441258e-01 3.451267e-01 -6.133678e-01 -6.441258e-01
3.828125e-02 1.562500e-03 8.013338e-01 0.000000e+00 0.000000e+00 4.449590e-01 6.152424e-01 6.413263e-01 3.563748e-01 -6.152424e-01 -6.413263e-01
3.906250e-02 1.562500e-03 8.013338e-01 0.000000e+00 0.000000e+00 4.336025e-01 6.170881e-01 6.384894e-01 3.677314e-01 -6.170881e-01 -6.384894e-01
3.984375e-02 1.562500e-03 8.013338e-01 0.000000e+00 0.000000e+00 4.221445e-01 6.189045e-01 6.356163e-01 3.791894e-01 -6.189045e-01 -6.356163e-01
4.062500e-02 1.562500e-03 8.013338e-01 0.000000e+00 0.000000e+00 4.105920e-01 6.206911e-01 6.327082e-01 3.907418e-01 -6.206911e-01 -6.327082e-01
4.140625e-02 1.562500e-03 8.013338e-01 0.000000e+00 0.000000e+00 3.989521e-01 6.224475e-01 6.297662e-01 4.023817e-01 -6.224475e-01 -6.297662e-01
4.218750e-02 1.562500e-03 8.013338e-01 0.000000e+00 0.000000e+00 3.872319e-01 6.241733e-01 6.267916e-01 4.141020e-01 -6.241733e-01 -6.267916e-01
4.296875e-02 1.562500e-03 8.013338e-01 0.000000e+00 0.000000e+00 3.754385e-01 6.258681e-01 6.237856e-01 4.258954e-01 -6.258681e-01 -6.237856e-01
4.375000e-02 1.562500e-03 8.013338e-01 0.000000e+00 0.000000e+00 3.635790e-01 6.275314e-01 6.207494e-01 4.377548e-01 -6.275314e-01 -6.207494e-01
4.453125e-02 1.562500e-03 8.013338e-01 0.000000e+00 0.000000e+00 3.516609e-01 6.291628e-01 6.176842e-01 4.496730e-01 -6.291628e-01 -6.176842e-01
4.531250e-02 1.562500e-03 8.013338e-01 0.000000e+00 0.000000e+00 3.396912e-01 6.307620e-01 6.145913e-01 4.616426e-01 -6.307620e-01 -6.145913e-01
4.609375e-02 1.562500e-03 8.013338e-01 0.000000e+00 0.000000e+00 3.276774e-01 6.323285e-01 6.114720e-01 4.736565e-01 -6.323285e-01 -6.114720e-01
4.687500e-02 1.562500e-03 8.013338e-01 0.000000e+00 0.000000e+00 3.156266e-01 6.338620e-01 6.083274e-01 4.857072e-01 -6.338620e-01 -6.083274e-01
4.765625e-02 1.562500e-03 8.013338e-01 0.000000e+00 0.000000e+00 3.035464e-01 6.353621e-01 6.051590e-01 4.977874e-01 -6.353621e-01 -6.051590e-01
4.843750e-02 1.562500e-03 8.013338e-01 0.000000e+00 0.000000e+00 2.914440e-01 6.368285e-01 6.019680e-01 5.098899e-01 -6.368285e-01 -6.019680e-01
4.921875e-02 1.562500e-03 8.013338e-01 0.000000e+00 0.000000e+00 2.793268e-01 6.382607e-01 5.987558e-01 5.220070e-01 -6.382607e-01 -5.987558e-01
5.000000e-02 1.562500e-03 8.013338e-01 6.396585e-01 5.955235e-01 2.672022e-01 6.396585e-01 5.955235e-01 5.341316e-01 0.000000e+00 0.000000e+00
0.000000e+00 2.343750e-03 8.013338e-01 4.998645e-01 7.165914e-01 7.617793e-01 4.998645e-01 7.165914e-01 3.955458e-02 0.000000e+00 0.000000e+00
7.812500e-04 2.343750e-03 8.013338e-01 0.000000e+00 0.000000e+00 7.618478e-01 5.025488e-01 7.165573e-01 3.948603e-02 -5.025488e-01 -7.165573e-01
1.562500e-03 2.343750e-03 8.013338e-01 0.000000e+00 0.000000e+00 7.616153e-01 5.052325e-01 7.164551e-01 3.971857e-02 -5.052325e-01 -7.164551e-01
2.343750e-03 2.343750e-03 8.013338e-01 0.000000e+00 0.000000e+00 7.610819e-01 5.079149e-01 7.162848e-01 4.025193e-02 -5.079149e-01 -7.162848e-01
3.125000e-03 2.343750e-03 8.013338e-01 0.000000e+00 0.000000e+00 7.602482e-01 5.105953e-01 7.160465e-01 4.108565e-02 -5.105953e-01 -7.160465e-01
3.906250e-03 2.343750e-03 8.013338e-01 0.000000e+00 0.000000e+00 7.591147e-01 5.132731e-01 7.157402e-01 4.221911e-02 -5.132731e-01 -7.157402e-01
4.687500e-03 2.343750e-03 8.013338e-01 0.000000e+00 0.000000e+00 7.576824e-01 5.159476e-01 7.153662e-01 4.365148e-02 -5.159476e-01 -7.153662e-01
5.468750e-03 2.343750e-03 8.013338e-01 0.000000e+00 0.000000e+00 7.559521e-01 5.186182e-01 7.149245e-01 4.538178e-02 -5.186182e-01 -7.149245e-01
6.250000e-03 2.343750e-03 8.013338e-01 0.000000e+00 0.000000e+00 7.539250e-01 5.212842e-01 7.144153e-01 4.740882e-02 -5.212842e-01 -7.144153e-01
7.031250e-03 2.343750e-03 8.013338e-01 0.000000e+00 0.000000e+00 7.516026e-01 5.239449e-01 7.138389e-01 4.973126e-02 -5.239449e-01 -7.138389e-01
7.812500e-03 2.343750e-03 8.013338e-01 0.000000e+00 0.000000e+00 7.489863e-01 5.265997e-01 7.131955e-01 5.234756e-02 -5.265997e-01 -7.131955e-01